[
  {
    "name": "Hydrogen",
    "atomic_number": 1,
    "symbol": "H",
    "atomic_mass": 1.008,
    "category": "diatomic nonmetal",
    "phase": "Gas",
    "xpos": 1,
    "ypos": 1,
    "electron_configuration": "1s¹",
    "electronegativity_pauling": 2.2,
    "isotopes": [
      {
        "mass": 1,
        "abundance": "99.985%"
      },
      {
        "mass": 2,
        "abundance": "0.015%"
      },
      {
        "mass": 3,
        "abundance": "trace"
      }
    ]
  },
  {
    "name": "Helium",
    "atomic_number": 2,
    "symbol": "He",
    "atomic_mass": 4.002602,
    "category": "noble gas",
    "phase": "Gas",
    "xpos": 18,
    "ypos": 1,
    "electron_configuration": "1s²",
    "electronegativity_pauling": null,
    "isotopes": [
      {
        "mass": 3,
        "abundance": "0.000137%"
      },
      {
        "mass": 4,
        "abundance": "99.999863%"
      }
    ]
  },
  {
    "name": "Lithium",
    "atomic_number": 3,
    "symbol": "Li",
    "atomic_mass": 6.94,
    "category": "alkali metal",
    "phase": "Solid",
    "xpos": 1,
    "ypos": 2,
    "electron_configuration": "[He] 2s¹",
    "electronegativity_pauling": 0.98,
    "isotopes": [
      {
        "mass": 6,
        "abundance": "7.59%"
      },
      {
        "mass": 7,
        "abundance": "92.41%"
      }
    ]
  },
  {
    "name": "Beryllium",
    "atomic_number": 4,
    "symbol": "Be",
    "atomic_mass": 9.0121831,
    "category": "alkaline earth metal",
    "phase": "Solid",
    "xpos": 2,
    "ypos": 2,
    "electron_configuration": "[He] 2s²",
    "electronegativity_pauling": 1.57,
    "isotopes": [
      {
        "mass": 9,
        "abundance": "100%"
      }
    ]
  },
  {
    "name": "Boron",
    "atomic_number": 5,
    "symbol": "B",
    "atomic_mass": 10.81,
    "category": "metalloid",
    "phase": "Solid",
    "xpos": 13,
    "ypos": 2,
    "electron_configuration": "[He] 2s² 2p¹",
    "electronegativity_pauling": 2.04,
    "isotopes": [
      {
        "mass": 10,
        "abundance": "19.9%"
      },
      {
        "mass": 11,
        "abundance": "80.1%"
      }
    ]
  },
  {
    "name": "Carbon",
    "atomic_number": 6,
    "symbol": "C",
    "atomic_mass": 12.011,
    "category": "polyatomic nonmetal",
    "phase": "Solid",
    "xpos": 14,
    "ypos": 2,
    "electron_configuration": "[He] 2s² 2p²",
    "electronegativity_pauling": 2.55,
    "isotopes": [
      {
        "mass": 12,
        "abundance": "98.9%"
      },
      {
        "mass": 13,
        "abundance": "1.1%"
      },
      {
        "mass": 14,
        "abundance": "trace"
      }
    ]
  },
  {
    "name": "Nitrogen",
    "atomic_number": 7,
    "symbol": "N",
    "atomic_mass": 14.007,
    "category": "diatomic nonmetal",
    "phase": "Gas",
    "xpos": 15,
    "ypos": 2,
    "electron_configuration": "[He] 2s² 2p³",
    "electronegativity_pauling": 3.04,
    "isotopes": [
      {
        "mass": 14,
        "abundance": "99.636%"
      },
      {
        "mass": 15,
        "abundance": "0.364%"
      }
    ]
  },
  {
    "name": "Oxygen",
    "atomic_number": 8,
    "symbol": "O",
    "atomic_mass": 15.999,
    "category": "diatomic nonmetal",
    "phase": "Gas",
    "xpos": 16,
    "ypos": 2,
    "electron_configuration": "[He] 2s² 2p⁴",
    "electronegativity_pauling": 3.44,
    "isotopes": [
      {
        "mass": 16,
        "abundance": "99.76%"
      },
      {
        "mass": 17,
        "abundance": "0.04%"
      },
      {
        "mass": 18,
        "abundance": "0.2%"
      }
    ]
  },
  {
    "name": "Fluorine",
    "atomic_number": 9,
    "symbol": "F",
    "atomic_mass": 18.998403163,
    "category": "diatomic nonmetal",
    "phase": "Gas",
    "xpos": 17,
    "ypos": 2,
    "electron_configuration": "[He] 2s² 2p⁵",
    "electronegativity_pauling": 3.98,
    "isotopes": [
      {
        "mass": 19,
        "abundance": "100%"
      }
    ]
  },
  {
    "name": "Neon",
    "atomic_number": 10,
    "symbol": "Ne",
    "atomic_mass": 20.1797,
    "category": "noble gas",
    "phase": "Gas",
    "xpos": 18,
    "ypos": 2,
    "electron_configuration": "[He] 2s² 2p⁶",
    "electronegativity_pauling": null,
    "isotopes": [
      {
        "mass": 20,
        "abundance": "90.48%"
      },
      {
        "mass": 21,
        "abundance": "0.27%"
      },
      {
        "mass": 22,
        "abundance": "9.25%"
      }
    ]
  },
  {
    "name": "Sodium",
    "atomic_number": 11,
    "symbol": "Na",
    "atomic_mass": 22.98976928,
    "category": "alkali metal",
    "phase": "Solid",
    "xpos": 1,
    "ypos": 3,
    "electron_configuration": "[Ne] 3s¹",
    "electronegativity_pauling": 0.93
  },
  {
    "name": "Magnesium",
    "atomic_number": 12,
    "symbol": "Mg",
    "atomic_mass": 24.305,
    "category": "alkaline earth metal",
    "phase": "Solid",
    "xpos": 2,
    "ypos": 3,
    "electron_configuration": "[Ne] 3s²",
    "electronegativity_pauling": 1.31
  },
  {
    "name": "Aluminium",
    "atomic_number": 13,
    "symbol": "Al",
    "atomic_mass": 26.9815385,
    "category": "post-transition metal",
    "phase": "Solid",
    "xpos": 13,
    "ypos": 3,
    "electron_configuration": "[Ne] 3s² 3p¹",
    "electronegativity_pauling": 1.61
  },
  {
    "name": "Silicon",
    "atomic_number": 14,
    "symbol": "Si",
    "atomic_mass": 28.085,
    "category": "metalloid",
    "phase": "Solid",
    "xpos": 14,
    "ypos": 3,
    "electron_configuration": "[Ne] 3s² 3p²",
    "electronegativity_pauling": 1.9
  },
  {
    "name": "Phosphorus",
    "atomic_number": 15,
    "symbol": "P",
    "atomic_mass": 30.973761998,
    "category": "polyatomic nonmetal",
    "phase": "Solid",
    "xpos": 15,
    "ypos": 3,
    "electron_configuration": "[Ne] 3s² 3p³",
    "electronegativity_pauling": 2.19
  },
  {
    "name": "Sulfur",
    "atomic_number": 16,
    "symbol": "S",
    "atomic_mass": 32.06,
    "category": "polyatomic nonmetal",
    "phase": "Solid",
    "xpos": 16,
    "ypos": 3,
    "electron_configuration": "[Ne] 3s² 3p⁴",
    "electronegativity_pauling": 2.58
  },
  {
    "name": "Chlorine",
    "atomic_number": 17,
    "symbol": "Cl",
    "atomic_mass": 35.45,
    "category": "diatomic nonmetal",
    "phase": "Gas",
    "xpos": 17,
    "ypos": 3,
    "electron_configuration": "[Ne] 3s² 3p⁵",
    "electronegativity_pauling": 3.16
  },
  {
    "name": "Argon",
    "atomic_number": 18,
    "symbol": "Ar",
    "atomic_mass": 39.948,
    "category": "noble gas",
    "phase": "Gas",
    "xpos": 18,
    "ypos": 3,
    "electron_configuration": "[Ne] 3s² 3p⁶",
    "electronegativity_pauling": null
  },
  {
    "name": "Potassium",
    "atomic_number": 19,
    "symbol": "K",
    "atomic_mass": 39.0983,
    "category": "alkali metal",
    "phase": "Solid",
    "xpos": 1,
    "ypos": 4,
    "electron_configuration": "[Ar] 4s¹",
    "electronegativity_pauling": 0.82,
    "melting_point": 336.7
  },
  {
    "name": "Calcium",
    "atomic_number": 20,
    "symbol": "Ca",
    "atomic_mass": 40.078,
    "category": "alkaline earth metal",
    "phase": "Solid",
    "xpos": 2,
    "ypos": 4,
    "electron_configuration": "[Ar] 4s²",
    "electronegativity_pauling": 1,
    "melting_point": 1115
  },
  {
    "name": "Scandium",
    "atomic_number": 21,
    "symbol": "Sc",
    "atomic_mass": 44.955908,
    "category": "transition metal",
    "phase": "Solid",
    "xpos": 3,
    "ypos": 4,
    "electron_configuration": "[Ar] 3d¹ 4s²",
    "electronegativity_pauling": 1.36,
    "melting_point": 1814
  },
  {
    "name": "Titanium",
    "atomic_number": 22,
    "symbol": "Ti",
    "atomic_mass": 47.867,
    "category": "transition metal",
    "phase": "Solid",
    "xpos": 4,
    "ypos": 4,
    "electron_configuration": "[Ar] 3d² 4s²",
    "electronegativity_pauling": 1.54,
    "melting_point": 1941
  },
  {
    "name": "Vanadium",
    "atomic_number": 23,
    "symbol": "V",
    "atomic_mass": 50.9415,
    "category": "transition metal",
    "phase": "Solid",
    "xpos": 5,
    "ypos": 4,
    "electron_configuration": "[Ar] 3d³ 4s²",
    "electronegativity_pauling": 1.63,
    "melting_point": 2183
  },
  {
    "name": "Chromium",
    "atomic_number": 24,
    "symbol": "Cr",
    "atomic_mass": 51.9961,
    "category": "transition metal",
    "phase": "Solid",
    "xpos": 6,
    "ypos": 4,
    "electron_configuration": "[Ar] 3d⁵ 4s¹",
    "electronegativity_pauling": 1.66,
    "melting_point": 2180
  },
  {
    "name": "Manganese",
    "atomic_number": 25,
    "symbol": "Mn",
    "atomic_mass": 54.938044,
    "category": "transition metal",
    "phase": "Solid",
    "xpos": 7,
    "ypos": 4,
    "electron_configuration": "[Ar] 3d⁵ 4s²",
    "electronegativity_pauling": 1.55,
    "melting_point": 1519
  },
  {
    "name": "Iron",
    "atomic_number": 26,
    "symbol": "Fe",
    "atomic_mass": 55.845,
    "category": "transition metal",
    "phase": "Solid",
    "xpos": 8,
    "ypos": 4,
    "electron_configuration": "[Ar] 3d⁶ 4s²",
    "electronegativity_pauling": 1.83,
    "melting_point": 1811
  },
  {
    "name": "Cobalt",
    "atomic_number": 27,
    "symbol": "Co",
    "atomic_mass": 58.933194,
    "category": "transition metal",
    "phase": "Solid",
    "xpos": 9,
    "ypos": 4,
    "electron_configuration": "[Ar] 3d⁷ 4s²",
    "electronegativity_pauling": 1.88,
    "melting_point": 1768
  },
  {
    "name": "Nickel",
    "atomic_number": 28,
    "symbol": "Ni",
    "atomic_mass": 58.6934,
    "category": "transition metal",
    "phase": "Solid",
    "xpos": 10,
    "ypos": 4,
    "electron_configuration": "[Ar] 3d⁸ 4s²",
    "electronegativity_pauling": 1.91,
    "melting_point": 1728
  },
  {
    "name": "Copper",
    "atomic_number": 29,
    "symbol": "Cu",
    "atomic_mass": 63.546,
    "category": "transition metal",
    "phase": "Solid",
    "xpos": 11,
    "ypos": 4,
    "electron_configuration": "[Ar] 3d¹⁰ 4s¹",
    "electronegativity_pauling": 1.9,
    "melting_point": 1357.77
  },
  {
    "name": "Zinc",
    "atomic_number": 30,
    "symbol": "Zn",
    "atomic_mass": 65.38,
    "category": "transition metal",
    "phase": "Solid",
    "xpos": 12,
    "ypos": 4,
    "electron_configuration": "[Ar] 3d¹⁰ 4s²",
    "electronegativity_pauling": 1.65,
    "melting_point": 692.68
  },
  {
    "name": "Gallium",
    "atomic_number": 31,
    "symbol": "Ga",
    "atomic_mass": 69.723,
    "category": "post-transition metal",
    "phase": "Solid",
    "xpos": 13,
    "ypos": 4,
    "electron_configuration": "[Ar] 3d¹⁰ 4s² 4p¹",
    "electronegativity_pauling": 1.81,
    "melting_point": 302.91
  },
  {
    "name": "Germanium",
    "atomic_number": 32,
    "symbol": "Ge",
    "atomic_mass": 72.63,
    "category": "metalloid",
    "phase": "Solid",
    "xpos": 14,
    "ypos": 4,
    "electron_configuration": "[Ar] 3d¹⁰ 4s² 4p²",
    "electronegativity_pauling": 2.01,
    "melting_point": 1211.4
  },
  {
    "name": "Arsenic",
    "atomic_number": 33,
    "symbol": "As",
    "atomic_mass": 74.921595,
    "category": "metalloid",
    "phase": "Solid",
    "xpos": 15,
    "ypos": 4,
    "electron_configuration": "[Ar] 3d¹⁰ 4s² 4p³",
    "electronegativity_pauling": 2.18,
    "melting_point": 1090
  },
  {
    "name": "Selenium",
    "atomic_number": 34,
    "symbol": "Se",
    "atomic_mass": 78.971,
    "category": "polyatomic nonmetal",
    "phase": "Solid",
    "xpos": 16,
    "ypos": 4,
    "electron_configuration": "[Ar] 3d¹⁰ 4s² 4p⁴",
    "electronegativity_pauling": 2.55,
    "melting_point": 494
  },
  {
    "name": "Bromine",
    "atomic_number": 35,
    "symbol": "Br",
    "atomic_mass": 79.904,
    "category": "diatomic nonmetal",
    "phase": "Liquid",
    "xpos": 17,
    "ypos": 4,
    "electron_configuration": "[Ar] 3d¹⁰ 4s² 4p⁵",
    "electronegativity_pauling": 2.96,
    "melting_point": 265.8
  },
  {
    "name": "Krypton",
    "atomic_number": 36,
    "symbol": "Kr",
    "atomic_mass": 83.798,
    "category": "noble gas",
    "phase": "Gas",
    "xpos": 18,
    "ypos": 4,
    "electron_configuration": "[Ar] 3d¹⁰ 4s² 4p⁶",
    "electronegativity_pauling": 3,
    "melting_point": 115.78
  },
  {
    "name": "Rubidium",
    "atomic_number": 37,
    "symbol": "Rb",
    "atomic_mass": 85.4678,
    "category": "alkali metal",
    "phase": "Solid",
    "xpos": 1,
    "ypos": 5,
    "electron_configuration": "[Kr] 5s¹",
    "electronegativity_pauling": 0.82,
    "melting_point": 312.45
  },
  {
    "name": "Strontium",
    "atomic_number": 38,
    "symbol": "Sr",
    "atomic_mass": 87.62,
    "category": "alkaline earth metal",
    "phase": "Solid",
    "xpos": 2,
    "ypos": 5,
    "electron_configuration": "[Kr] 5s²",
    "electronegativity_pauling": 0.95,
    "melting_point": 1050
  },
  {
    "name": "Yttrium",
    "atomic_number": 39,
    "symbol": "Y",
    "atomic_mass": 88.90584,
    "category": "transition metal",
    "phase": "Solid",
    "xpos": 3,
    "ypos": 5,
    "electron_configuration": "[Kr] 4d¹ 5s²",
    "electronegativity_pauling": 1.22,
    "melting_point": 1799
  },
  {
    "name": "Zirconium",
    "atomic_number": 40,
    "symbol": "Zr",
    "atomic_mass": 91.224,
    "category": "transition metal",
    "phase": "Solid",
    "xpos": 4,
    "ypos": 5,
    "electron_configuration": "[Kr] 4d² 5s²",
    "electronegativity_pauling": 1.33,
    "melting_point": 2128
  },
  {
    "name": "Niobium",
    "atomic_number": 41,
    "symbol": "Nb",
    "atomic_mass": 92.90637,
    "category": "transition metal",
    "phase": "Solid",
    "xpos": 5,
    "ypos": 5,
    "electron_configuration": "[Kr] 4d⁴ 5s¹",
    "electronegativity_pauling": 1.6,
    "melting_point": 2750
  },
  {
    "name": "Molybdenum",
    "atomic_number": 42,
    "symbol": "Mo",
    "atomic_mass": 95.95,
    "category": "transition metal",
    "phase": "Solid",
    "xpos": 6,
    "ypos": 5,
    "electron_configuration": "[Kr] 4d⁵ 5s¹",
    "electronegativity_pauling": 2.16,
    "melting_point": 2896
  },
  {
    "name": "Technetium",
    "atomic_number": 43,
    "symbol": "Tc",
    "atomic_mass": 98,
    "category": "transition metal",
    "phase": "Solid",
    "xpos": 7,
    "ypos": 5,
    "electron_configuration": "[Kr] 4d⁵ 5s²",
    "electronegativity_pauling": 1.9,
    "melting_point": 2430
  },
  {
    "name": "Ruthenium",
    "atomic_number": 44,
    "symbol": "Ru",
    "atomic_mass": 101.07,
    "category": "transition metal",
    "phase": "Solid",
    "xpos": 8,
    "ypos": 5,
    "electron_configuration": "[Kr] 4d⁷ 5s¹",
    "electronegativity_pauling": 2.2,
    "melting_point": 2607
  },
  {
    "name": "Rhodium",
    "atomic_number": 45,
    "symbol": "Rh",
    "atomic_mass": 102.9055,
    "category": "transition metal",
    "phase": "Solid",
    "xpos": 9,
    "ypos": 5,
    "electron_configuration": "[Kr] 4d⁸ 5s¹",
    "electronegativity_pauling": 2.28,
    "melting_point": 2237
  },
  {
    "name": "Palladium",
    "atomic_number": 46,
    "symbol": "Pd",
    "atomic_mass": 106.42,
    "category": "transition metal",
    "phase": "Solid",
    "xpos": 10,
    "ypos": 5,
    "electron_configuration": "[Kr] 4d¹⁰",
    "electronegativity_pauling": 2.2,
    "melting_point": 1828.05
  },
  {
    "name": "Silver",
    "atomic_number": 47,
    "symbol": "Ag",
    "atomic_mass": 107.8682,
    "category": "transition metal",
    "phase": "Solid",
    "xpos": 11,
    "ypos": 5,
    "electron_configuration": "[Kr] 4d¹⁰ 5s¹",
    "electronegativity_pauling": 1.93,
    "melting_point": 1234.93
  },
  {
    "name": "Cadmium",
    "atomic_number": 48,
    "symbol": "Cd",
    "atomic_mass": 112.414,
    "category": "transition metal",
    "phase": "Solid",
    "xpos": 12,
    "ypos": 5,
    "electron_configuration": "[Kr] 4d¹⁰ 5s²",
    "electronegativity_pauling": 1.69,
    "melting_point": 594.22
  },
  {
    "name": "Indium",
    "atomic_number": 49,
    "symbol": "In",
    "atomic_mass": 114.818,
    "category": "post-transition metal",
    "phase": "Solid",
    "xpos": 13,
    "ypos": 5,
    "electron_configuration": "[Kr] 4d¹⁰ 5s² 5p¹",
    "electronegativity_pauling": 1.78,
    "melting_point": 429.75
  },
  {
    "name": "Tin",
    "atomic_number": 50,
    "symbol": "Sn",
    "atomic_mass": 118.71,
    "category": "post-transition metal",
    "phase": "Solid",
    "xpos": 14,
    "ypos": 5,
    "electron_configuration": "[Kr] 4d¹⁰ 5s² 5p²",
    "electronegativity_pauling": 1.96,
    "melting_point": 505.08
  },
  {
    "name": "Antimony",
    "atomic_number": 51,
    "symbol": "Sb",
    "atomic_mass": 121.76,
    "category": "metalloid",
    "phase": "Solid",
    "xpos": 15,
    "ypos": 5,
    "electron_configuration": "[Kr] 4d¹⁰ 5s² 5p³",
    "electronegativity_pauling": 2.05,
    "melting_point": 903.78
  },
  {
    "name": "Tellurium",
    "atomic_number": 52,
    "symbol": "Te",
    "atomic_mass": 127.6,
    "category": "metalloid",
    "phase": "Solid",
    "xpos": 16,
    "ypos": 5,
    "electron_configuration": "[Kr] 4d¹⁰ 5s² 5p⁴",
    "electronegativity_pauling": 2.1,
    "melting_point": 722.66
  },
  {
    "name": "Iodine",
    "atomic_number": 53,
    "symbol": "I",
    "atomic_mass": 126.90447,
    "category": "diatomic nonmetal",
    "phase": "Solid",
    "xpos": 17,
    "ypos": 5,
    "electron_configuration": "[Kr] 4d¹⁰ 5s² 5p⁵",
    "electronegativity_pauling": 2.66,
    "melting_point": 386.85
  },
  {
    "name": "Xenon",
    "atomic_number": 54,
    "symbol": "Xe",
    "atomic_mass": 131.293,
    "category": "noble gas",
    "phase": "Gas",
    "xpos": 18,
    "ypos": 5,
    "electron_configuration": "[Kr] 4d¹⁰ 5s² 5p⁶",
    "electronegativity_pauling": 2.6,
    "melting_point": 161.4
  },
  {
    "name": "Caesium",
    "atomic_number": 55,
    "symbol": "Cs",
    "atomic_mass": 132.90545196,
    "category": "alkali metal",
    "phase": "Solid",
    "xpos": 1,
    "ypos": 6,
    "electron_configuration": "[Xe] 6s¹",
    "electronegativity_pauling": 0.79,
    "melting_point": 301.7
  },
  {
    "name": "Barium",
    "atomic_number": 56,
    "symbol": "Ba",
    "atomic_mass": 137.327,
    "category": "alkaline earth metal",
    "phase": "Solid",
    "xpos": 2,
    "ypos": 6,
    "electron_configuration": "[Xe] 6s²",
    "electronegativity_pauling": 0.89,
    "melting_point": 1000
  },
  {
    "name": "Lanthanum",
    "atomic_number": 57,
    "symbol": "La",
    "atomic_mass": 138.90547,
    "category": "lanthanide",
    "phase": "Solid",
    "xpos": 3,
    "ypos": 9,
    "electron_configuration": "[Xe] 5d¹ 6s²",
    "electronegativity_pauling": 1.1,
    "melting_point": 1193
  },
  {
    "name": "Cerium",
    "atomic_number": 58,
    "symbol": "Ce",
    "atomic_mass": 140.116,
    "category": "lanthanide",
    "phase": "Solid",
    "xpos": 4,
    "ypos": 9,
    "electron_configuration": "[Xe] 4f¹ 5d¹ 6s²",
    "electronegativity_pauling": 1.12,
    "melting_point": 1068
  },
  {
    "name": "Praseodymium",
    "atomic_number": 59,
    "symbol": "Pr",
    "atomic_mass": 140.90766,
    "category": "lanthanide",
    "phase": "Solid",
    "xpos": 5,
    "ypos": 9,
    "electron_configuration": "[Xe] 4f³ 6s²",
    "electronegativity_pauling": 1.13,
    "melting_point": 1208
  },
  {
    "name": "Neodymium",
    "atomic_number": 60,
    "symbol": "Nd",
    "atomic_mass": 144.242,
    "category": "lanthanide",
    "phase": "Solid",
    "xpos": 6,
    "ypos": 9,
    "electron_configuration": "[Xe] 4f⁴ 6s²",
    "electronegativity_pauling": 1.14,
    "melting_point": 1297
  },
  {
    "name": "Promethium",
    "atomic_number": 61,
    "symbol": "Pm",
    "atomic_mass": 145,
    "category": "lanthanide",
    "phase": "Solid",
    "xpos": 7,
    "ypos": 9,
    "electron_configuration": "[Xe] 4f⁵ 6s²",
    "electronegativity_pauling": 1.13,
    "melting_point": 1315
  },
  {
    "name": "Samarium",
    "atomic_number": 62,
    "symbol": "Sm",
    "atomic_mass": 150.36,
    "category": "lanthanide",
    "phase": "Solid",
    "xpos": 8,
    "ypos": 9,
    "electron_configuration": "[Xe] 4f⁶ 6s²",
    "electronegativity_pauling": 1.17,
    "melting_point": 1345
  },
  {
    "name": "Europium",
    "atomic_number": 63,
    "symbol": "Eu",
    "atomic_mass": 151.964,
    "category": "lanthanide",
    "phase": "Solid",
    "xpos": 9,
    "ypos": 9,
    "electron_configuration": "[Xe] 4f⁷ 6s²",
    "electronegativity_pauling": 1.2,
    "melting_point": 1099
  },
  {
    "name": "Gadolinium",
    "atomic_number": 64,
    "symbol": "Gd",
    "atomic_mass": 157.25,
    "category": "lanthanide",
    "phase": "Solid",
    "xpos": 10,
    "ypos": 9,
    "electron_configuration": "[Xe] 4f⁷ 5d¹ 6s²",
    "electronegativity_pauling": 1.2,
    "melting_point": 1585
  },
  {
    "name": "Terbium",
    "atomic_number": 65,
    "symbol": "Tb",
    "atomic_mass": 158.92535,
    "category": "lanthanide",
    "phase": "Solid",
    "xpos": 11,
    "ypos": 9,
    "electron_configuration": "[Xe] 4f⁹ 6s²",
    "electronegativity_pauling": 1.2,
    "melting_point": 1629
  },
  {
    "name": "Dysprosium",
    "atomic_number": 66,
    "symbol": "Dy",
    "atomic_mass": 162.5,
    "category": "lanthanide",
    "phase": "Solid",
    "xpos": 12,
    "ypos": 9,
    "electron_configuration": "[Xe] 4f¹⁰ 6s²",
    "electronegativity_pauling": 1.22,
    "melting_point": 1680
  },
  {
    "name": "Holmium",
    "atomic_number": 67,
    "symbol": "Ho",
    "atomic_mass": 164.93033,
    "category": "lanthanide",
    "phase": "Solid",
    "xpos": 13,
    "ypos": 9,
    "electron_configuration": "[Xe] 4f¹¹ 6s²",
    "electronegativity_pauling": 1.23,
    "melting_point": 1734
  },
  {
    "name": "Erbium",
    "atomic_number": 68,
    "symbol": "Er",
    "atomic_mass": 167.259,
    "category": "lanthanide",
    "phase": "Solid",
    "xpos": 14,
    "ypos": 9,
    "electron_configuration": "[Xe] 4f¹² 6s²",
    "electronegativity_pauling": 1.24,
    "melting_point": 1802
  },
  {
    "name": "Thulium",
    "atomic_number": 69,
    "symbol": "Tm",
    "atomic_mass": 168.93422,
    "category": "lanthanide",
    "phase": "Solid",
    "xpos": 15,
    "ypos": 9,
    "electron_configuration": "[Xe] 4f¹³ 6s²",
    "electronegativity_pauling": 1.25,
    "melting_point": 1818
  },
  {
    "name": "Ytterbium",
    "atomic_number": 70,
    "symbol": "Yb",
    "atomic_mass": 173.045,
    "category": "lanthanide",
    "phase": "Solid",
    "xpos": 16,
    "ypos": 9,
    "electron_configuration": "[Xe] 4f¹⁴ 6s²",
    "electronegativity_pauling": 1.1,
    "melting_point": 1097
  },
  {
    "name": "Lutetium",
    "atomic_number": 71,
    "symbol": "Lu",
    "atomic_mass": 174.9668,
    "category": "lanthanide",
    "phase": "Solid",
    "xpos": 17,
    "ypos": 9,
    "electron_configuration": "[Xe] 4f¹⁴ 5d¹ 6s²",
    "electronegativity_pauling": 1.27,
    "melting_point": 1925
  },
  {
    "name": "Hafnium",
    "atomic_number": 72,
    "symbol": "Hf",
    "atomic_mass": 178.49,
    "category": "transition metal",
    "phase": "Solid",
    "xpos": 4,
    "ypos": 6,
    "electron_configuration": "[Xe] 4f¹⁴ 5d² 6s²",
    "electronegativity_pauling": 1.3,
    "melting_point": 2506
  },
  {
    "name": "Tantalum",
    "atomic_number": 73,
    "symbol": "Ta",
    "atomic_mass": 180.94788,
    "category": "transition metal",
    "phase": "Solid",
    "xpos": 5,
    "ypos": 6,
    "electron_configuration": "[Xe] 4f¹⁴ 5d³ 6s²",
    "electronegativity_pauling": 1.5,
    "melting_point": 3290
  },
  {
    "name": "Tungsten",
    "atomic_number": 74,
    "symbol": "W",
    "atomic_mass": 183.84,
    "category": "transition metal",
    "phase": "Solid",
    "xpos": 6,
    "ypos": 6,
    "electron_configuration": "[Xe] 4f¹⁴ 5d⁴ 6s²",
    "electronegativity_pauling": 2.36,
    "melting_point": 3695
  },
  {
    "name": "Rhenium",
    "atomic_number": 75,
    "symbol": "Re",
    "atomic_mass": 186.207,
    "category": "transition metal",
    "phase": "Solid",
    "xpos": 7,
    "ypos": 6,
    "electron_configuration": "[Xe] 4f¹⁴ 5d⁵ 6s²",
    "electronegativity_pauling": 1.9,
    "melting_point": 3459
  },
  {
    "name": "Osmium",
    "atomic_number": 76,
    "symbol": "Os",
    "atomic_mass": 190.23,
    "category": "transition metal",
    "phase": "Solid",
    "xpos": 8,
    "ypos": 6,
    "electron_configuration": "[Xe] 4f¹⁴ 5d⁶ 6s²",
    "electronegativity_pauling": 2.2,
    "melting_point": 3306
  },
  {
    "name": "Iridium",
    "atomic_number": 77,
    "symbol": "Ir",
    "atomic_mass": 192.217,
    "category": "transition metal",
    "phase": "Solid",
    "xpos": 9,
    "ypos": 6,
    "electron_configuration": "[Xe] 4f¹⁴ 5d⁷ 6s²",
    "electronegativity_pauling": 2.2,
    "melting_point": 2719
  },
  {
    "name": "Platinum",
    "atomic_number": 78,
    "symbol": "Pt",
    "atomic_mass": 195.084,
    "category": "transition metal",
    "phase": "Solid",
    "xpos": 10,
    "ypos": 6,
    "electron_configuration": "[Xe] 4f¹⁴ 5d⁹ 6s¹",
    "electronegativity_pauling": 2.28,
    "melting_point": 2041.4
  },
  {
    "name": "Gold",
    "atomic_number": 79,
    "symbol": "Au",
    "atomic_mass": 196.966569,
    "category": "transition metal",
    "phase": "Solid",
    "xpos": 11,
    "ypos": 6,
    "electron_configuration": "[Xe] 4f¹⁴ 5d¹⁰ 6s¹",
    "electronegativity_pauling": 2.54,
    "melting_point": 1337.33
  },
  {
    "name": "Mercury",
    "atomic_number": 80,
    "symbol": "Hg",
    "atomic_mass": 200.592,
    "category": "transition metal",
    "phase": "Liquid",
    "xpos": 12,
    "ypos": 6,
    "electron_configuration": "[Xe] 4f¹⁴ 5d¹⁰ 6s²",
    "electronegativity_pauling": 2,
    "melting_point": 234.32
  },
  {
    "name": "Thallium",
    "atomic_number": 81,
    "symbol": "Tl",
    "atomic_mass": 204.38,
    "category": "post-transition metal",
    "phase": "Solid",
    "xpos": 13,
    "ypos": 6,
    "electron_configuration": "[Xe] 4f¹⁴ 5d¹⁰ 6s² 6p¹",
    "electronegativity_pauling": 1.62,
    "melting_point": 577
  },
  {
    "name": "Lead",
    "atomic_number": 82,
    "symbol": "Pb",
    "atomic_mass": 207.2,
    "category": "post-transition metal",
    "phase": "Solid",
    "xpos": 14,
    "ypos": 6,
    "electron_configuration": "[Xe] 4f¹⁴ 5d¹⁰ 6s² 6p²",
    "electronegativity_pauling": 1.87,
    "melting_point": 600.61
  },
  {
    "name": "Bismuth",
    "atomic_number": 83,
    "symbol": "Bi",
    "atomic_mass": 208.9804,
    "category": "post-transition metal",
    "phase": "Solid",
    "xpos": 15,
    "ypos": 6,
    "electron_configuration": "[Xe] 4f¹⁴ 5d¹⁰ 6s² 6p³",
    "electronegativity_pauling": 2.02,
    "melting_point": 544.7
  },
  {
    "name": "Polonium",
    "atomic_number": 84,
    "symbol": "Po",
    "atomic_mass": 209,
    "category": "post-transition metal",
    "phase": "Solid",
    "xpos": 16,
    "ypos": 6,
    "electron_configuration": "[Xe] 4f¹⁴ 5d¹⁰ 6s² 6p⁴",
    "electronegativity_pauling": 2,
    "melting_point": 527
  },
  {
    "name": "Astatine",
    "atomic_number": 85,
    "symbol": "At",
    "atomic_mass": 210,
    "category": "metalloid",
    "phase": "Solid",
    "xpos": 17,
    "ypos": 6,
    "electron_configuration": "[Xe] 4f¹⁴ 5d¹⁰ 6s² 6p⁵",
    "electronegativity_pauling": 2.2,
    "melting_point": 575
  },
  {
    "name": "Radon",
    "atomic_number": 86,
    "symbol": "Rn",
    "atomic_mass": 222,
    "category": "noble gas",
    "phase": "Gas",
    "xpos": 18,
    "ypos": 6,
    "electron_configuration": "[Xe] 4f¹⁴ 5d¹⁰ 6s² 6p⁶",
    "electronegativity_pauling": 2.2,
    "melting_point": 202
  },
  {
    "name": "Francium",
    "atomic_number": 87,
    "symbol": "Fr",
    "atomic_mass": 223,
    "category": "alkali metal",
    "phase": "Solid",
    "xpos": 1,
    "ypos": 7,
    "electron_configuration": "[Rn] 7s¹",
    "electronegativity_pauling": 0.7,
    "melting_point": 300
  },
  {
    "name": "Radium",
    "atomic_number": 88,
    "symbol": "Ra",
    "atomic_mass": 226,
    "category": "alkaline earth metal",
    "phase": "Solid",
    "xpos": 2,
    "ypos": 7,
    "electron_configuration": "[Rn] 7s²",
    "electronegativity_pauling": 0.9,
    "melting_point": 973
  },
  {
    "name": "Actinium",
    "atomic_number": 89,
    "symbol": "Ac",
    "atomic_mass": 227,
    "category": "actinide",
    "phase": "Solid",
    "xpos": 3,
    "ypos": 10,
    "electron_configuration": "[Rn] 6d¹ 7s²",
    "electronegativity_pauling": 1.1,
    "melting_point": 1500
  },
  {
    "name": "Thorium",
    "atomic_number": 90,
    "symbol": "Th",
    "atomic_mass": 232.0377,
    "category": "actinide",
    "phase": "Solid",
    "xpos": 4,
    "ypos": 10,
    "electron_configuration": "[Rn] 6d² 7s²",
    "electronegativity_pauling": 1.3,
    "melting_point": 2115,
    "isotopes": [
      {
        "mass": 232,
        "abundance": "100%"
      }
    ]
  },
  {
    "name": "Protactinium",
    "atomic_number": 91,
    "symbol": "Pa",
    "atomic_mass": 231.03588,
    "category": "actinide",
    "phase": "Solid",
    "xpos": 5,
    "ypos": 10,
    "electron_configuration": "[Rn] 5f² 6d¹ 7s²",
    "electronegativity_pauling": 1.5,
    "melting_point": 1841
  },
  {
    "name": "Uranium",
    "atomic_number": 92,
    "symbol": "U",
    "atomic_mass": 238.02891,
    "category": "actinide",
    "phase": "Solid",
    "xpos": 6,
    "ypos": 10,
    "electron_configuration": "[Rn] 5f³ 6d¹ 7s²",
    "electronegativity_pauling": 1.38,
    "melting_point": 1405.3,
    "isotopes": [
      {
        "mass": 234,
        "abundance": "0.005%"
      },
      {
        "mass": 235,
        "abundance": "0.720%"
      },
      {
        "mass": 238,
        "abundance": "99.275%"
      }
    ]
  },
  {
    "name": "Neptunium",
    "atomic_number": 93,
    "symbol": "Np",
    "atomic_mass": 237,
    "category": "actinide",
    "phase": "Solid",
    "xpos": 7,
    "ypos": 10,
    "electron_configuration": "[Rn] 5f⁴ 6d¹ 7s²",
    "electronegativity_pauling": 1.36,
    "melting_point": 912
  },
  {
    "name": "Plutonium",
    "atomic_number": 94,
    "symbol": "Pu",
    "atomic_mass": 244,
    "category": "actinide",
    "phase": "Solid",
    "xpos": 8,
    "ypos": 10,
    "electron_configuration": "[Rn] 5f⁶ 7s²",
    "electronegativity_pauling": 1.28,
    "melting_point": 912.5
  },
  {
    "name": "Americium",
    "atomic_number": 95,
    "symbol": "Am",
    "atomic_mass": 243,
    "category": "actinide",
    "phase": "Solid",
    "xpos": 9,
    "ypos": 10,
    "electron_configuration": "[Rn] 5f⁷ 7s²",
    "electronegativity_pauling": 1.13,
    "melting_point": 1449
  },
  {
    "name": "Curium",
    "atomic_number": 96,
    "symbol": "Cm",
    "atomic_mass": 247,
    "category": "actinide",
    "phase": "Solid",
    "xpos": 10,
    "ypos": 10,
    "electron_configuration": "[Rn] 5f⁷ 6d¹ 7s²",
    "electronegativity_pauling": 1.28,
    "melting_point": 1613
  },
  {
    "name": "Berkelium",
    "atomic_number": 97,
    "symbol": "Bk",
    "atomic_mass": 247,
    "category": "actinide",
    "phase": "Solid",
    "xpos": 11,
    "ypos": 10,
    "electron_configuration": "[Rn] 5f⁹ 7s²",
    "electronegativity_pauling": 1.3,
    "melting_point": 1259
  },
  {
    "name": "Californium",
    "atomic_number": 98,
    "symbol": "Cf",
    "atomic_mass": 251,
    "category": "actinide",
    "phase": "Solid",
    "xpos": 12,
    "ypos": 10,
    "electron_configuration": "[Rn] 5f¹⁰ 7s²",
    "electronegativity_pauling": 1.3,
    "melting_point": 1173
  },
  {
    "name": "Einsteinium",
    "atomic_number": 99,
    "symbol": "Es",
    "atomic_mass": 252,
    "category": "actinide",
    "phase": "Solid",
    "xpos": 13,
    "ypos": 10,
    "electron_configuration": "[Rn] 5f¹¹ 7s²",
    "electronegativity_pauling": 1.3,
    "melting_point": 1133
  },
  {
    "name": "Fermium",
    "atomic_number": 100,
    "symbol": "Fm",
    "atomic_mass": 257,
    "category": "actinide",
    "phase": "Solid",
    "xpos": 14,
    "ypos": 10,
    "electron_configuration": "[Rn] 5f¹² 7s²",
    "electronegativity_pauling": 1.3,
    "melting_point": 1800
  },
  {
    "name": "Mendelevium",
    "atomic_number": 101,
    "symbol": "Md",
    "atomic_mass": 258,
    "category": "actinide",
    "phase": "Solid",
    "xpos": 15,
    "ypos": 10,
    "electron_configuration": "[Rn] 5f¹³ 7s²",
    "electronegativity_pauling": 1.3,
    "melting_point": 1100
  },
  {
    "name": "Nobelium",
    "atomic_number": 102,
    "symbol": "No",
    "atomic_mass": 259,
    "category": "actinide",
    "phase": "Solid",
    "xpos": 16,
    "ypos": 10,
    "electron_configuration": "[Rn] 5f¹⁴ 7s²",
    "electronegativity_pauling": 1.3,
    "melting_point": 1100
  },
  {
    "name": "Lawrencium",
    "atomic_number": 103,
    "symbol": "Lr",
    "atomic_mass": 266,
    "category": "actinide",
    "phase": "Solid",
    "xpos": 17,
    "ypos": 10,
    "electron_configuration": "[Rn] 5f¹⁴ 7s² 7p¹",
    "electronegativity_pauling": 1.3,
    "melting_point": 1900
  },
  {
    "name": "Rutherfordium",
    "atomic_number": 104,
    "symbol": "Rf",
    "atomic_mass": 267,
    "category": "transition metal",
    "phase": "Solid",
    "xpos": 4,
    "ypos": 7,
    "electron_configuration": "[Rn] 5f¹⁴ 6d² 7s²",
    "electronegativity_pauling": null,
    "melting_point": null
  },
  {
    "name": "Dubnium",
    "atomic_number": 105,
    "symbol": "Db",
    "atomic_mass": 268,
    "category": "transition metal",
    "phase": "Solid",
    "xpos": 5,
    "ypos": 7,
    "electron_configuration": "[Rn] 5f¹⁴ 6d³ 7s²",
    "electronegativity_pauling": null,
    "melting_point": null
  },
  {
    "name": "Seaborgium",
    "atomic_number": 106,
    "symbol": "Sg",
    "atomic_mass": 269,
    "category": "transition metal",
    "phase": "Solid",
    "xpos": 6,
    "ypos": 7,
    "electron_configuration": "[Rn] 5f¹⁴ 6d⁴ 7s²",
    "electronegativity_pauling": null,
    "melting_point": null
  },
  {
    "name": "Bohrium",
    "atomic_number": 107,
    "symbol": "Bh",
    "atomic_mass": 270,
    "category": "transition metal",
    "phase": "Solid",
    "xpos": 7,
    "ypos": 7,
    "electron_configuration": "[Rn] 5f¹⁴ 6d⁵ 7s²",
    "electronegativity_pauling": null,
    "melting_point": null
  },
  {
    "name": "Hassium",
    "atomic_number": 108,
    "symbol": "Hs",
    "atomic_mass": 269,
    "category": "transition metal",
    "phase": "Solid",
    "xpos": 8,
    "ypos": 7,
    "electron_configuration": "[Rn] 5f¹⁴ 6d⁶ 7s²",
    "electronegativity_pauling": null,
    "melting_point": null
  },
  {
    "name": "Meitnerium",
    "atomic_number": 109,
    "symbol": "Mt",
    "atomic_mass": 278,
    "category": "unknown",
    "phase": "Solid",
    "xpos": 9,
    "ypos": 7,
    "electron_configuration": "[Rn] 5f¹⁴ 6d⁷ 7s²",
    "electronegativity_pauling": null,
    "melting_point": null
  },
  {
    "name": "Darmstadtium",
    "atomic_number": 110,
    "symbol": "Ds",
    "atomic_mass": 281,
    "category": "unknown",
    "phase": "Solid",
    "xpos": 10,
    "ypos": 7,
    "electron_configuration": "[Rn] 5f¹⁴ 6d⁸ 7s²",
    "electronegativity_pauling": null,
    "melting_point": null
  },
  {
    "name": "Roentgenium",
    "atomic_number": 111,
    "symbol": "Rg",
    "atomic_mass": 282,
    "category": "unknown",
    "phase": "Solid",
    "xpos": 11,
    "ypos": 7,
    "electron_configuration": "[Rn] 5f¹⁴ 6d⁹ 7s²",
    "electronegativity_pauling": null,
    "melting_point": null
  },
  {
    "name": "Copernicium",
    "atomic_number": 112,
    "symbol": "Cn",
    "atomic_mass": 285,
    "category": "transition metal",
    "phase": "Gas",
    "xpos": 12,
    "ypos": 7,
    "electron_configuration": "[Rn] 5f¹⁴ 6d¹⁰ 7s²",
    "electronegativity_pauling": null,
    "melting_point": null
  },
  {
    "name": "Nihonium",
    "atomic_number": 113,
    "symbol": "Nh",
    "atomic_mass": 286,
    "category": "unknown",
    "phase": "Solid",
    "xpos": 13,
    "ypos": 7,
    "electron_configuration": "[Rn] 5f¹⁴ 6d¹⁰ 7s² 7p¹",
    "electronegativity_pauling": null,
    "melting_point": null
  },
  {
    "name": "Flerovium",
    "atomic_number": 114,
    "symbol": "Fl",
    "atomic_mass": 289,
    "category": "post-transition metal",
    "phase": "Solid",
    "xpos": 14,
    "ypos": 7,
    "electron_configuration": "[Rn] 5f¹⁴ 6d¹⁰ 7s² 7p²",
    "electronegativity_pauling": null,
    "melting_point": null
  },
  {
    "name": "Moscovium",
    "atomic_number": 115,
    "symbol": "Mc",
    "atomic_mass": 290,
    "category": "unknown",
    "phase": "Solid",
    "xpos": 15,
    "ypos": 7,
    "electron_configuration": "[Rn] 5f¹⁴ 6d¹⁰ 7s² 7p³",
    "electronegativity_pauling": null,
    "melting_point": null
  },
  {
    "name": "Livermorium",
    "atomic_number": 116,
    "symbol": "Lv",
    "atomic_mass": 293,
    "category": "unknown",
    "phase": "Solid",
    "xpos": 16,
    "ypos": 7,
    "electron_configuration": "[Rn] 5f¹⁴ 6d¹⁰ 7s² 7p⁴",
    "electronegativity_pauling": null,
    "melting_point": null
  },
  {
    "name": "Tennessine",
    "atomic_number": 117,
    "symbol": "Ts",
    "atomic_mass": 294,
    "category": "unknown",
    "phase": "Solid",
    "xpos": 17,
    "ypos": 7,
    "electron_configuration": "[Rn] 5f¹⁴ 6d¹⁰ 7s² 7p⁵",
    "electronegativity_pauling": null,
    "melting_point": null
  },
  {
    "name": "Oganesson",
    "atomic_number": 118,
    "symbol": "Og",
    "atomic_mass": 294,
    "category": "noble gas",
    "phase": "Gas",
    "xpos": 18,
    "ypos": 7,
    "electron_configuration": "[Rn] 5f¹⁴ 6d¹⁰ 7s² 7p⁶",
    "electronegativity_pauling": null,
    "melting_point": null
  }
]